integrator = md
dt = 0.002
nsteps = 500000
continuation = yes
constraints = h-bonds
constraint-algorithm = lincs
lincs-iter = 1
lincs-order = 4
cutoff-scheme = Verlet
nstlist = 20
rlist = 1.0
coulombtype = PME
rcoulomb = 1.0
vdwtype = Cut-off
rvdw = 1.0
DispCorr = EnerPres
tcoupl = V-rescale
tc-grps = Protein Non-Protein
tau-t = 0.5 0.5
ref-t = 300 300
ld-seed = 307986
pcoupl = C-rescale
pcoupltype = isotropic
tau-p = 5.0
ref-p = 1.0
compressibility = 4.5e-5
refcoord-scaling = com
pbc = xyz
gen-vel = no
nstxout = 0
nstvout = 0
nstfout = 0
nstenergy = 500
nstlog = 500
nstxout-compressed = 5000
compressed-x-grps = System
define = -DPOSRES -DPOSRES_TPL
